# vtk DataFile Version 2.0
generated by mesh_to_vtk.py
ASCII
DATASET UNSTRUCTURED_GRID
POINTS 4 float
-5.00000000000e-001 -5.00000000000e-001 0.0 
5.00000000000e-001 -5.00000000000e-001 0.0 
5.00000000000e-001 5.00000000000e-001 0.0 
-5.00000000000e-001 5.00000000000e-001 0.0 
CELLS 2 8
3 0 1 2 
3 2 3 0 
CELL_TYPES 2
5
5
CELL_DATA 2

SCALARS mat_id int 1
LOOKUP_TABLE default
0
0
