# vtk DataFile Version 2.0
step 0 time 0.000000e+00 normalized time 0.000000e+00, generated by convert_mesh.py
ASCII
DATASET UNSTRUCTURED_GRID

POINTS 143 float
0.000000e+00 0.000000e+00 0.000000e+00
2.500000e-02 0.000000e+00 0.000000e+00
5.000000e-02 0.000000e+00 0.000000e+00
7.500000e-02 0.000000e+00 0.000000e+00
1.000000e-01 0.000000e+00 0.000000e+00
1.250000e-01 0.000000e+00 0.000000e+00
1.500000e-01 0.000000e+00 0.000000e+00
1.750000e-01 0.000000e+00 0.000000e+00
2.000000e-01 0.000000e+00 0.000000e+00
2.250000e-01 0.000000e+00 0.000000e+00
2.500000e-01 0.000000e+00 0.000000e+00
2.750000e-01 0.000000e+00 0.000000e+00
3.000000e-01 0.000000e+00 0.000000e+00
0.000000e+00 2.000000e-02 0.000000e+00
2.500000e-02 2.000000e-02 0.000000e+00
5.000000e-02 2.000000e-02 0.000000e+00
7.500000e-02 2.000000e-02 0.000000e+00
1.000000e-01 2.000000e-02 0.000000e+00
1.250000e-01 2.000000e-02 0.000000e+00
1.500000e-01 2.000000e-02 0.000000e+00
1.750000e-01 2.000000e-02 0.000000e+00
2.000000e-01 2.000000e-02 0.000000e+00
2.250000e-01 2.000000e-02 0.000000e+00
2.500000e-01 2.000000e-02 0.000000e+00
2.750000e-01 2.000000e-02 0.000000e+00
3.000000e-01 2.000000e-02 0.000000e+00
0.000000e+00 4.000000e-02 0.000000e+00
2.500000e-02 4.000000e-02 0.000000e+00
5.000000e-02 4.000000e-02 0.000000e+00
7.500000e-02 4.000000e-02 0.000000e+00
1.000000e-01 4.000000e-02 0.000000e+00
1.250000e-01 4.000000e-02 0.000000e+00
1.500000e-01 4.000000e-02 0.000000e+00
1.750000e-01 4.000000e-02 0.000000e+00
2.000000e-01 4.000000e-02 0.000000e+00
2.250000e-01 4.000000e-02 0.000000e+00
2.500000e-01 4.000000e-02 0.000000e+00
2.750000e-01 4.000000e-02 0.000000e+00
3.000000e-01 4.000000e-02 0.000000e+00
0.000000e+00 6.000000e-02 0.000000e+00
2.500000e-02 6.000000e-02 0.000000e+00
5.000000e-02 6.000000e-02 0.000000e+00
7.500000e-02 6.000000e-02 0.000000e+00
1.000000e-01 6.000000e-02 0.000000e+00
1.250000e-01 6.000000e-02 0.000000e+00
1.500000e-01 6.000000e-02 0.000000e+00
1.750000e-01 6.000000e-02 0.000000e+00
2.000000e-01 6.000000e-02 0.000000e+00
2.250000e-01 6.000000e-02 0.000000e+00
2.500000e-01 6.000000e-02 0.000000e+00
2.750000e-01 6.000000e-02 0.000000e+00
3.000000e-01 6.000000e-02 0.000000e+00
0.000000e+00 8.000000e-02 0.000000e+00
2.500000e-02 8.000000e-02 0.000000e+00
5.000000e-02 8.000000e-02 0.000000e+00
7.500000e-02 8.000000e-02 0.000000e+00
1.000000e-01 8.000000e-02 0.000000e+00
1.250000e-01 8.000000e-02 0.000000e+00
1.500000e-01 8.000000e-02 0.000000e+00
1.750000e-01 8.000000e-02 0.000000e+00
2.000000e-01 8.000000e-02 0.000000e+00
2.250000e-01 8.000000e-02 0.000000e+00
2.500000e-01 8.000000e-02 0.000000e+00
2.750000e-01 8.000000e-02 0.000000e+00
3.000000e-01 8.000000e-02 0.000000e+00
0.000000e+00 1.000000e-01 0.000000e+00
2.500000e-02 1.000000e-01 0.000000e+00
5.000000e-02 1.000000e-01 0.000000e+00
7.500000e-02 1.000000e-01 0.000000e+00
1.000000e-01 1.000000e-01 0.000000e+00
1.250000e-01 1.000000e-01 0.000000e+00
1.500000e-01 1.000000e-01 0.000000e+00
1.750000e-01 1.000000e-01 0.000000e+00
2.000000e-01 1.000000e-01 0.000000e+00
2.250000e-01 1.000000e-01 0.000000e+00
2.500000e-01 1.000000e-01 0.000000e+00
2.750000e-01 1.000000e-01 0.000000e+00
3.000000e-01 1.000000e-01 0.000000e+00
0.000000e+00 1.200000e-01 0.000000e+00
2.500000e-02 1.200000e-01 0.000000e+00
5.000000e-02 1.200000e-01 0.000000e+00
7.500000e-02 1.200000e-01 0.000000e+00
1.000000e-01 1.200000e-01 0.000000e+00
1.250000e-01 1.200000e-01 0.000000e+00
1.500000e-01 1.200000e-01 0.000000e+00
1.750000e-01 1.200000e-01 0.000000e+00
2.000000e-01 1.200000e-01 0.000000e+00
2.250000e-01 1.200000e-01 0.000000e+00
2.500000e-01 1.200000e-01 0.000000e+00
2.750000e-01 1.200000e-01 0.000000e+00
3.000000e-01 1.200000e-01 0.000000e+00
0.000000e+00 1.400000e-01 0.000000e+00
2.500000e-02 1.400000e-01 0.000000e+00
5.000000e-02 1.400000e-01 0.000000e+00
7.500000e-02 1.400000e-01 0.000000e+00
1.000000e-01 1.400000e-01 0.000000e+00
1.250000e-01 1.400000e-01 0.000000e+00
1.500000e-01 1.400000e-01 0.000000e+00
1.750000e-01 1.400000e-01 0.000000e+00
2.000000e-01 1.400000e-01 0.000000e+00
2.250000e-01 1.400000e-01 0.000000e+00
2.500000e-01 1.400000e-01 0.000000e+00
2.750000e-01 1.400000e-01 0.000000e+00
3.000000e-01 1.400000e-01 0.000000e+00
0.000000e+00 1.600000e-01 0.000000e+00
2.500000e-02 1.600000e-01 0.000000e+00
5.000000e-02 1.600000e-01 0.000000e+00
7.500000e-02 1.600000e-01 0.000000e+00
1.000000e-01 1.600000e-01 0.000000e+00
1.250000e-01 1.600000e-01 0.000000e+00
1.500000e-01 1.600000e-01 0.000000e+00
1.750000e-01 1.600000e-01 0.000000e+00
2.000000e-01 1.600000e-01 0.000000e+00
2.250000e-01 1.600000e-01 0.000000e+00
2.500000e-01 1.600000e-01 0.000000e+00
2.750000e-01 1.600000e-01 0.000000e+00
3.000000e-01 1.600000e-01 0.000000e+00
0.000000e+00 1.800000e-01 0.000000e+00
2.500000e-02 1.800000e-01 0.000000e+00
5.000000e-02 1.800000e-01 0.000000e+00
7.500000e-02 1.800000e-01 0.000000e+00
1.000000e-01 1.800000e-01 0.000000e+00
1.250000e-01 1.800000e-01 0.000000e+00
1.500000e-01 1.800000e-01 0.000000e+00
1.750000e-01 1.800000e-01 0.000000e+00
2.000000e-01 1.800000e-01 0.000000e+00
2.250000e-01 1.800000e-01 0.000000e+00
2.500000e-01 1.800000e-01 0.000000e+00
2.750000e-01 1.800000e-01 0.000000e+00
3.000000e-01 1.800000e-01 0.000000e+00
0.000000e+00 2.000000e-01 0.000000e+00
2.500000e-02 2.000000e-01 0.000000e+00
5.000000e-02 2.000000e-01 0.000000e+00
7.500000e-02 2.000000e-01 0.000000e+00
1.000000e-01 2.000000e-01 0.000000e+00
1.250000e-01 2.000000e-01 0.000000e+00
1.500000e-01 2.000000e-01 0.000000e+00
1.750000e-01 2.000000e-01 0.000000e+00
2.000000e-01 2.000000e-01 0.000000e+00
2.250000e-01 2.000000e-01 0.000000e+00
2.500000e-01 2.000000e-01 0.000000e+00
2.750000e-01 2.000000e-01 0.000000e+00
3.000000e-01 2.000000e-01 0.000000e+00

CELLS 120 600
4 0 1 14 13 
4 1 2 15 14 
4 2 3 16 15 
4 3 4 17 16 
4 4 5 18 17 
4 5 6 19 18 
4 6 7 20 19 
4 7 8 21 20 
4 8 9 22 21 
4 9 10 23 22 
4 10 11 24 23 
4 11 12 25 24 
4 13 14 27 26 
4 14 15 28 27 
4 15 16 29 28 
4 16 17 30 29 
4 17 18 31 30 
4 18 19 32 31 
4 19 20 33 32 
4 20 21 34 33 
4 21 22 35 34 
4 22 23 36 35 
4 23 24 37 36 
4 24 25 38 37 
4 26 27 40 39 
4 27 28 41 40 
4 28 29 42 41 
4 29 30 43 42 
4 30 31 44 43 
4 31 32 45 44 
4 32 33 46 45 
4 33 34 47 46 
4 34 35 48 47 
4 35 36 49 48 
4 36 37 50 49 
4 37 38 51 50 
4 39 40 53 52 
4 40 41 54 53 
4 41 42 55 54 
4 42 43 56 55 
4 43 44 57 56 
4 44 45 58 57 
4 45 46 59 58 
4 46 47 60 59 
4 47 48 61 60 
4 48 49 62 61 
4 49 50 63 62 
4 50 51 64 63 
4 52 53 66 65 
4 53 54 67 66 
4 54 55 68 67 
4 55 56 69 68 
4 56 57 70 69 
4 57 58 71 70 
4 58 59 72 71 
4 59 60 73 72 
4 60 61 74 73 
4 61 62 75 74 
4 62 63 76 75 
4 63 64 77 76 
4 65 66 79 78 
4 66 67 80 79 
4 67 68 81 80 
4 68 69 82 81 
4 69 70 83 82 
4 70 71 84 83 
4 71 72 85 84 
4 72 73 86 85 
4 73 74 87 86 
4 74 75 88 87 
4 75 76 89 88 
4 76 77 90 89 
4 78 79 92 91 
4 79 80 93 92 
4 80 81 94 93 
4 81 82 95 94 
4 82 83 96 95 
4 83 84 97 96 
4 84 85 98 97 
4 85 86 99 98 
4 86 87 100 99 
4 87 88 101 100 
4 88 89 102 101 
4 89 90 103 102 
4 91 92 105 104 
4 92 93 106 105 
4 93 94 107 106 
4 94 95 108 107 
4 95 96 109 108 
4 96 97 110 109 
4 97 98 111 110 
4 98 99 112 111 
4 99 100 113 112 
4 100 101 114 113 
4 101 102 115 114 
4 102 103 116 115 
4 104 105 118 117 
4 105 106 119 118 
4 106 107 120 119 
4 107 108 121 120 
4 108 109 122 121 
4 109 110 123 122 
4 110 111 124 123 
4 111 112 125 124 
4 112 113 126 125 
4 113 114 127 126 
4 114 115 128 127 
4 115 116 129 128 
4 117 118 131 130 
4 118 119 132 131 
4 119 120 133 132 
4 120 121 134 133 
4 121 122 135 134 
4 122 123 136 135 
4 123 124 137 136 
4 124 125 138 137 
4 125 126 139 138 
4 126 127 140 139 
4 127 128 141 140 
4 128 129 142 141 

CELL_TYPES 120
9
9
9
9
9
9
9
9
9
9
9
9
9
9
9
9
9
9
9
9
9
9
9
9
9
9
9
9
9
9
9
9
9
9
9
9
9
9
9
9
9
9
9
9
9
9
9
9
9
9
9
9
9
9
9
9
9
9
9
9
9
9
9
9
9
9
9
9
9
9
9
9
9
9
9
9
9
9
9
9
9
9
9
9
9
9
9
9
9
9
9
9
9
9
9
9
9
9
9
9
9
9
9
9
9
9
9
9
9
9
9
9
9
9
9
9
9
9
9
9

POINT_DATA 143

SCALARS node_groups int 1
LOOKUP_TABLE default
0
0
0
0
0
0
0
0
0
0
0
0
0
0
0
0
0
0
0
0
0
0
0
0
0
0
0
0
0
0
0
0
0
0
0
0
0
0
0
0
0
0
0
0
0
0
0
0
0
0
0
0
0
0
0
0
0
0
0
0
0
0
0
0
0
0
0
0
0
0
0
0
0
0
0
0
0
0
0
0
0
0
0
0
0
0
0
0
0
0
0
0
0
0
0
0
0
0
0
0
0
0
0
0
0
0
0
0
0
0
0
0
0
0
0
0
0
0
0
0
0
0
0
0
0
0
0
0
0
0
0
0
0
0
0
0
0
0
0
0
0
0
0

CELL_DATA 120
SCALARS mat_id int 1
LOOKUP_TABLE default
1
1
1
1
1
1
1
1
1
1
1
1
1
1
1
1
1
1
1
1
1
1
1
1
1
1
1
1
1
1
1
1
1
1
1
1
1
1
1
1
1
1
1
1
1
1
1
1
1
1
1
1
1
1
1
1
1
1
1
1
1
1
1
1
1
1
1
1
1
1
1
1
1
1
1
1
1
1
1
1
1
1
1
1
1
1
1
1
1
1
1
1
1
1
1
1
1
1
1
1
1
1
1
1
1
1
1
1
1
1
1
1
1
1
1
1
1
1
1
1
