# vtk DataFile Version 5.1
written by meshio v5.3.4
ASCII
DATASET UNSTRUCTURED_GRID
POINTS 12 double
0.0 0.0 0.0 10.0 5.0 0.0 10.0 0.0 0.0 20.0 8.0 0.0 20.0 0.0 0.0 30.0 9.0 0.0 30.0 0.0 0.0 40.0 8.0 0.0 40.0 0.0 0.0 50.0 5.0 0.0 50.0 0.0 0.0 60.0 0.0 0.0
CELLS 22 42
OFFSETS vtktypeint64
0
2
4
6
8
10
12
14
16
18
20
22
24
26
28
30
32
34
36
38
40
42
CONNECTIVITY vtktypeint64
0
2
2
4
4
6
6
8
8
10
10
11
0
1
1
3
3
5
5
7
7
9
9
11
1
2
3
4
5
6
7
8
9
10
1
4
3
6
6
7
8
9
CELL_TYPES 21
3
3
3
3
3
3
3
3
3
3
3
3
3
3
3
3
3
3
3
3
3
POINT_DATA 12
FIELD FieldData 1
node_groups 1 12 vtktypeint64
0 0 0 0 0 0 0 0 0 0 0 0
CELL_DATA 21
FIELD FieldData 1
mat_id 1 21 vtktypeint64
1 1 1 1 1 1 1 1 1 1 1 1 1 1 1 1 1 1 1 1 1
