# vtk DataFile Version 2.0
step 0 time 0.000000e+00 normalized time 0.000000e+00, generated by pydevconsole.py
ASCII
DATASET UNSTRUCTURED_GRID

POINTS 4 float
-1.000000e+00 -1.000000e+00 0.000000e+00
-1.000000e+00 1.000000e+00 0.000000e+00
1.000000e+00 -1.000000e+00 0.000000e+00
1.000000e+00 1.000000e+00 0.000000e+00

CELLS 1 5
4 0 2 3 1 

CELL_TYPES 1
9

POINT_DATA 4

SCALARS node_groups int 1
LOOKUP_TABLE default
0
0
0
0

CELL_DATA 1
SCALARS mat_id int 1
LOOKUP_TABLE default
0
