# vtk DataFile Version 5.1
vtk output
ASCII
DATASET UNSTRUCTURED_GRID
POINTS 32 float
0 0 0.1 1.4803e-17 0 -1.49012e-09 1.4803e-17 0.1 -1.49012e-09 
0 0.1 0.1 0.1 0 0.1 0.1 0 -1.49012e-09 
0.1 0.1 -1.49012e-09 0.1 0.1 0.1 0.2 0 0.1 
0.2 0 -1.49012e-09 0.2 0.1 -1.49012e-09 0.2 0.1 0.1 
0.3 0 0.1 0.3 0 -1.49012e-09 0.3 0.1 -1.49012e-09 
0.3 0.1 0.1 0.4 0 0.1 0.4 0 -1.49012e-09 
0.4 0.1 -1.49012e-09 0.4 0.1 0.1 0.5 0 0.1 
0.5 0 -1.49012e-09 0.5 0.1 -1.49012e-09 0.5 0.1 0.1 
0.6 0 0.1 0.6 0 -1.49012e-09 0.6 0.1 -1.49012e-09 
0.6 0.1 0.1 0.7 0 0.1 0.7 0 -1.49012e-09 
0.7 0.1 -1.49012e-09 0.7 0.1 0.1 
METADATA
INFORMATION 2
NAME L2_NORM_RANGE LOCATION vtkDataArray
DATA 2 1.49012e-09 0.714143 
NAME L2_NORM_FINITE_RANGE LOCATION vtkDataArray
DATA 2 1.49012e-09 0.714143 

CELLS 15 84
OFFSETS vtktypeint64
0 6 12 18 24 30 36 42 48 
54 60 66 72 78 84 
CONNECTIVITY vtktypeint64
0 1 5 3 2 6 0 5 4 
3 6 7 4 5 9 7 6 10 
4 9 8 7 10 11 8 9 13 
11 10 14 8 13 12 11 14 15 
12 13 17 15 14 18 12 17 16 
15 18 19 16 17 21 19 18 22 
16 21 20 19 22 23 20 21 25 
23 22 26 20 25 24 23 26 27 
24 25 29 27 26 30 24 29 28 
27 30 31 
CELL_TYPES 14
13
13
13
13
13
13
13
13
13
13
13
13
13
13

CELL_DATA 14
FIELD FieldData 1
mat_id 1 14 int
1 1 1 1 1 1 1 1 1 
1 1 1 1 1 
METADATA
INFORMATION 0

