# vtk DataFile Version 5.1
written by meshio v5.3.4
ASCII
DATASET UNSTRUCTURED_GRID
POINTS 5457 double
1.09 -0.075 -9.184850993605149e-18 1.09 -0.06471999166125576 -0.03789884799524893 1.09 -0.03669806188354708 -0.06540835003263229 1.09 0.001384038085591356 -0.07498722850311 1.09 0.03908672677310263 -0.06400959139195331 1.09 0.0660744320696349 -0.03548477739362616 1.09 0.0749489183620702 0.002767604804833236 1.09 0.0632773911680537 0.04026129365737172 1.09 0.03425940773772859 0.06671801092253922 1.09 -0.004150228951910905 0.07488508262428988 1.09 -0.0414221486219946 0.06252364035736716 1.09 -0.06733886740560345 0.03302237024398093 0.815 -0.075 -9.184850993605149e-18 0.815 -0.06471999166125576 -0.03789884799524893 0.815 -0.03669806188354708 -0.06540835003263229 0.815 0.001384038085591356 -0.07498722850311 0.815 0.03908672677310263 -0.06400959139195331 0.815 0.0660744320696349 -0.03548477739362616 0.815 0.0749489183620702 0.002767604804833236 0.815 0.0632773911680537 0.04026129365737172 0.815 0.03425940773772859 0.06671801092253922 0.815 -0.004150228951910905 0.07488508262428988 0.815 -0.0414221486219946 0.06252364035736716 0.815 -0.06733886740560345 0.03302237024398093 0.815 -0.11 1.347111479062088e-17 0.815 -0.1024874177413863 0.0399540887107012 0.815 -0.08097583264177126 0.07445075236672799 0.815 -0.04840356383886451 0.09877800872510525 0.815 -0.00921973585505724 0.1096129393400386 0.815 0.03122343801991019 0.1054755749840541 0.815 0.06740172741267213 0.0869310482036645 0.815 0.0943734527770639 0.056512400505865 0.815 0.1084544812865995 0.01837458812748304 0.815 0.1077214513964831 -0.02227305342864188 0.815 0.09227448942212414 -0.05987836505689096 0.815 0.06422353304494176 -0.08930474681239108 0.815 0.0274001298506881 -0.1065327784494774 0.815 -0.01316592296901997 -0.109209241698557 0.815 -0.05193361071026738 -0.09696855200834135 0.815 -0.08360756167973832 -0.0714826946188289 0.815 -0.1038613547480974 -0.03623284407674706 0.76 -0.11 1.347111479062088e-17 0.76 -0.1024874177413863 0.0399540887107012 0.76 -0.08097583264177126 0.07445075236672799 0.76 -0.04840356383886451 0.09877800872510525 0.76 -0.00921973585505724 0.1096129393400386 0.76 0.03122343801991019 0.1054755749840541 0.76 0.06740172741267213 0.0869310482036645 0.76 0.0943734527770639 0.056512400505865 0.76 0.1084544812865995 0.01837458812748304 0.76 0.1077214513964831 -0.02227305342864188 0.76 0.09227448942212414 -0.05987836505689096 0.76 0.06422353304494176 -0.08930474681239108 0.76 0.0274001298506881 -0.1065327784494774 0.76 -0.01316592296901997 -0.109209241698557 0.76 -0.05193361071026738 -0.09696855200834135 0.76 -0.08360756167973832 -0.0714826946188289 0.76 -0.1038613547480974 -0.03623284407674706 0.76 -0.41 2.322870948035671e-16 0.76 -0.4080243138418678 0.0402014839760042 0.76 -0.4021162960298882 0.08001552641333616 0.76 -0.3923328850470519 0.119058419738617 0.76 -0.3787683684526669 0.1569538883229872 0.76 -0.3615534741866223 0.1933367148360172 0.76 -0.3408541106797235 0.2278562600253387 0.76 -0.3168697679122767 0.260179842000144 0.76 -0.2898315948307087 0.2899959424507313 0.76 -0.2600001716511096 0.3170172089041753 0.76 -0.2276629985191052 0.3409832240819038 0.76 -0.193131724729086 0.3616630156695159 0.76 -0.1567391452061721 0.3788572823109495 0.76 -0.1188359931973005 0.3924003143739963 0.76 -0.07978756008185445 0.4021615909757972 0.76 -0.03997017487838462 0.4080470378769969 0.76 0.0002324226238429043 0.4099999341216092 0.76 0.0404327801545545 0.4080014586848599 0.76 0.08024346703118732 0.4020708718606892 0.76 0.1192808080195566 0.3922653296407951 0.76 0.1571685810014133 0.378679332874138 0.76 0.1935416428126468 0.3614438165156264 0.76 0.2280494483081384 0.3407248877413472 0.76 0.2603594287383029 0.3167222250917427 0.76 0.290160196878236 0.2896671540709842 0.76 0.3171645480200558 0.25982041774894 0.76 0.3411122279063953 0.2274696638515462 0.76 0.3617724409291043 0.1929266725577305 0.76 0.3789460744204117 0.1565243517199793 0.76 0.3924676175999586 0.1186135284670878 0.76 0.4022067566838601 0.07955956811000285 0.76 0.4080696307829443 0.03973885293603062 0.76 0.4099997364864582 -0.0004648451729941059 0.76 0.4079784724133177 -0.04066406333970683 0.76 0.4020253184827975 -0.08047138186215778 0.76 0.3921976481769352 -0.1195031579686535 0.76 0.3785901756039746 -0.1573832231724577 0.76 0.3613340426917673 -0.1937465085931203 0.76 0.3405955553083013 -0.2282425633054226 0.76 0.3165745804899868 -0.2605389318078756 0.76 0.2895026202244014 -0.290324358060439 0.76 0.2596405803513996 -0.3173117852125703 0.76 0.2272762560847899 -0.3412411221117423 0.76 0.1927215583878444 -0.3618817499302233 0.76 0.156309507933433 -0.3790347447525201 0.76 0.1183910256194678 -0.392534794703311 0.76 0.07933155057104681 -0.4022517931395626 0.76 0.03950751822327762 -0.4080920925524499 0.76 -0.0006972675727640624 -0.4099994070946102 0.76 -0.04089533345713733 -0.4079553550346282 0.76 -0.0806992708330059 -0.401979635910852 0.76 -0.1197254695144544 -0.3921298406772219 0.76 -0.157597814767144 -0.3785008966708281 0.76 -0.1939513121116027 -0.3612241527503216 0.76 -0.2284356049551324 -0.3404661134221476 0.76 -0.2607183511511773 -0.3164268341544557 0.76 -0.290488425944586 -0.2893379933438344 0.76 -0.3174589204344029 -0.2594606595162808 0.76 -0.3413699066565233 -0.2270827752809899 0.76 -0.3619909426377454 -0.1925163822853434 0.76 -0.3791232932787792 -0.1560946139155759 0.76 -0.3926018456624651 -0.118168484725945 0.76 -0.4022967003284317 -0.0791035075382629 0.76 -0.4081144231782953 -0.03927617081446853 0.815 -0.41 2.322870948035671e-16 0.815 -0.4080243138418678 0.0402014839760042 0.815 -0.4021162960298882 0.08001552641333616 0.815 -0.3923328850470519 0.119058419738617 0.815 -0.3787683684526669 0.1569538883229872 0.815 -0.3615534741866223 0.1933367148360172 0.815 -0.3408541106797235 0.2278562600253387 0.815 -0.3168697679122767 0.260179842000144 0.815 -0.2898315948307087 0.2899959424507313 0.815 -0.2600001716511096 0.3170172089041753 0.815 -0.2276629985191052 0.3409832240819038 0.815 -0.193131724729086 0.3616630156695159 0.815 -0.1567391452061721 0.3788572823109495 0.815 -0.1188359931973005 0.3924003143739963 0.815 -0.07978756008185445 0.4021615909757972 0.815 -0.03997017487838462 0.4080470378769969 0.815 0.0002324226238429043 0.4099999341216092 0.815 0.0404327801545545 0.4080014586848599 0.815 0.08024346703118732 0.4020708718606892 0.815 0.1192808080195566 0.3922653296407951 0.815 0.1571685810014133 0.378679332874138 0.815 0.1935416428126468 0.3614438165156264 0.815 0.2280494483081384 0.3407248877413472 0.815 0.2603594287383029 0.3167222250917427 0.815 0.290160196878236 0.2896671540709842 0.815 0.3171645480200558 0.25982041774894 0.815 0.3411122279063953 0.2274696638515462 0.815 0.3617724409291043 0.1929266725577305 0.815 0.3789460744204117 0.1565243517199793 0.815 0.3924676175999586 0.1186135284670878 0.815 0.4022067566838601 0.07955956811000285 0.815 0.4080696307829443 0.03973885293603062 0.815 0.4099997364864582 -0.0004648451729941059 0.815 0.4079784724133177 -0.04066406333970683 0.815 0.4020253184827975 -0.08047138186215778 0.815 0.3921976481769352 -0.1195031579686535 0.815 0.3785901756039746 -0.1573832231724577 0.815 0.3613340426917673 -0.1937465085931203 0.815 0.3405955553083013 -0.2282425633054226 0.815 0.3165745804899868 -0.2605389318078756 0.815 0.2895026202244014 -0.290324358060439 0.815 0.2596405803513996 -0.3173117852125703 0.815 0.2272762560847899 -0.3412411221117423 0.815 0.1927215583878444 -0.3618817499302233 0.815 0.156309507933433 -0.3790347447525201 0.815 0.1183910256194678 -0.392534794703311 0.815 0.07933155057104681 -0.4022517931395626 0.815 0.03950751822327762 -0.4080920925524499 0.815 -0.0006972675727640624 -0.4099994070946102 0.815 -0.04089533345713733 -0.4079553550346282 0.815 -0.0806992708330059 -0.401979635910852 0.815 -0.1197254695144544 -0.3921298406772219 0.815 -0.157597814767144 -0.3785008966708281 0.815 -0.1939513121116027 -0.3612241527503216 0.815 -0.2284356049551324 -0.3404661134221476 0.815 -0.2607183511511773 -0.3164268341544557 0.815 -0.290488425944586 -0.2893379933438344 0.815 -0.3174589204344029 -0.2594606595162808 0.815 -0.3413699066565233 -0.2270827752809899 0.815 -0.3619909426377454 -0.1925163822853434 0.815 -0.3791232932787792 -0.1560946139155759 0.815 -0.3926018456624651 -0.118168484725945 0.815 -0.4022967003284317 -0.0791035075382629 0.815 -0.4081144231782953 -0.03927617081446853 0.815 -0.46 5.633375276077825e-17 0.815 -0.4582485938116278 0.04010269653858417 0.815 -0.4530077118710184 0.07990001868200268 0.815 -0.4443172624958385 0.1190889174029398 0.815 -0.4322434218026767 0.1573709767025463 0.815 -0.4168781297885219 0.1944546859914266 0.815 -0.3983383902251991 0.2300576598872488 0.815 -0.3767653796979343 0.2639087885256408 0.815 -0.3523233725725506 0.2957503020101648 0.815 -0.3251984900774637 0.3253397332809777 0.815 -0.2955972830259813 0.3524517644553052 0.815 -0.2637451589712043 0.3768799425801991 0.815 -0.2298846657704474 0.3984382517324482 0.815 -0.1942736446295069 0.4169625294943996 0.815 -0.1571832666909936 0.4323117170194997 0.815 -0.1188959681177362 0.4443689331685399 0.815 -0.07970329939520082 0.4530423645372682 0.815 -0.03990370523008093 0.4582659645979732 0.815 0.0001997480492951427 0.4599999566312119 0.815 0.04030168028532501 0.4582311366179512 0.815 0.08009672290286132 0.4529729737856578 0.815 0.1192818442327436 0.4442655080426968 0.815 0.1575586570402361 0.4321750450820562 0.815 0.1946356906869811 0.4167936514761253 0.815 0.2302306106243902 0.3982384536072834 0.815 0.2640723683174503 0.3766507457728086 0.815 0.2959032652276873 0.3521949142557186 0.815 0.3254809151384491 0.3250571855545385 0.815 0.3525800898797739 0.2954442083039886 0.815 0.3769944343980017 0.2635814796849938 0.815 0.3985380381102012 0.229711628306605 0.815 0.4170468505778445 0.1940925666353586 0.815 0.4323799307196478 0.1569955270409722 0.815 0.4444205200510583 0.1187029964135148 0.815 0.4530769317778731 0.07950656507954894 0.815 0.4582832489737119 0.03970470639733725 0
[...]
POINT_DATA 5457
FIELD FieldData 1
node_groups 1 5457 vtktypeint64
0 0 0 0 0 0 0 0 0 0 0 0 0 0 0 0 0 0 0 0 0 0 0 0 0 0 0 0 0 0 0 0 0 0 0 0 0 0 0 0 0 0 0 0 0 0 0 0 0 0 0 0 0 0 0 0 0 0 0 0 0 0 0 0 0 0 0 0 0 0 0 0 0 0 0 0 0 0 0 0 0 0 0 0 0 0 0 0 0 0 0 0 0 0 0 0 0 0 0 0 0 0 0 0 0 0 0 0 0 0 0 0 0 0 0 0 0 0 0 0 0 0 0 0 0 0 0 0 0 0 0 0 0 0 0 0 0 0 0 0 0 0 0 0 0 0 0 0 0 0 0 0 0 0 0 0 0 0 0 0 0 0 0 0 0 0 0 0 0 0 0 0 0 0 0 0 0 0 0 0 0 0 0 0 0 0 0 0 0 0 0 0 0 0 0 0 0 0 0 0 0 0 0 0 0 0 0 0 0 0 0 0 0 0 0 0 0 0 0 0 0 0 0 0 0 0 0 0 0 0 0 0 0 0 0 0 0 0 0 0 0 0 0 0 0 0 0 0 0 0 0 0 0 0 0 0 0 0 0 0 0 0 0 0 0 0 0 0 0 0 0 0 0 0 0 0 0 0 0 0 0 0 0 0 0 0 0 0 0 0 0 0 0 0 0 0 0 0 0 0 0 0 0 0 0 0 0 0 0 0 0 0 0 0 0 0 0 0 0 0 0 0 0 0 0 0 0 0 0 0 0 0 0 0 0 0 0 0 0 0 0 0 0 0 0 0 0 0 0 0 0 0 0 0 0 0 0 0 0 0 0 0 0 0 0 0 0 0 0 0 0 0 0 0 0 0 0 0 0 0 0 0 0 0 0 0 0 0 0 0 0 0 0 0 0 0 0 0 0 0 0 0 0 0 0 0 0 0 0 0 0 0 0 0 0 0 0 0 0 0 0 0 0 0 0 0 0 0 0 0 0 0 0 0 0 0 0 0 0 0 0 0 0 0 0 0 0 0 0 0 0 0 0 0 0 0 0 0 0 0 0 0 0 0 0 0 0 0 0 0 0 0 0 0 0 0 0 0 0 0 0 0 0 0 0 0 0 0 0 0 0 0 0 0 0 0 0 0 0 0 0 0 0 0 0 0 0 0 0 0 0 0 0 0 0 0 0 0 0 0 0 0 0 0 0 0 0 0 0 0 0 0 0 0 0 0 0 0 0 0 0 0 0 0 0 0 0 0 0 0 0 0 0 0 0 0 0 0 0 0 0 0 0 0 0 0 0 0 0 0 0 0 0 0 0 0 0 0 0 0 0 0 0 0 0 0 0 0 0 0 0 0 0 0 0 0 0 0 0 0 0 0 0 0 0 0 0 0 0 0 0 0 0 0 0 0 0 0 0 0 0 0 0 0 0 0 0 0 0 0 0 0 0 0 0 0 0 0 0 0 0 0 0 0 0 0 0 0 0 0 0 0 0 0 0 0 0 0 0 0 0 0 0 0 0 0 0 0 0 0 0 0 0 0 0 0 0 0 0 0 0 0 0 0 0 0 0 0 0 0 0 0 0 0 0 0 0 0 0 0 0 0 0 0 0 0 0 0 0 0 0 0 0 0 0 0 0 0 0 0 0 0 0 0 0 0 0 0 0 0 0 0 0 0 0 0 0 0 0 0 0 0 0 0 0 0 0 0 0 0 0 0 0 0 0 0 0 0 0 0 0 0 0 0 0 0 0 0 0 0 0 0 0 0 0 0 0 0 0 0 0 0 0 0 0 0 0 0 0 0 0 0 0 0 0 0 0 0 0 0 0 0 0 0 0 0 0 0 0 0 0 0 0 0 0 0 0 0 0 0 0 0 0 0 0 0 0 0 0 0 0 0 0 0 0 0 0 0 0 0 0 0 0 0 0 0 0 0 0 0 0 0 0 0 0 0 0 0 0 0 0 0 0 0 0 0 0 0 0 0 0 0 0 0 0 0 0 0 0 0 0 0 0 0 0 0 0 0 0 0 0 0 0 0 0 0 0 0 0 0 0 0 0 0 0 0 0 0 0 0 0 0 0 0 0 0 0 0 0 0 0 0 0 0 0 0 0 0 0 0 0 0 0 0 0 0 0 0 0 0 0 0 0 0 0 0 0 0 0 0 0 0 0 0 0 0 0 0 0 0 0 0 0 0 0 0 0 0 0 0 0 0 0 0 0 0 0 0 0 0 0 0 0 0 0 0 0 0 0 0 0 0 0 0 0 0 0 0 0 0 0 0 0 0 0 0 0 0 0 0 0 0 0 0 0 0 0 0 0 0 0 0 0 0 0 0 0 0 0 0 0 0 0 0 0 0 0 0 0 0 0 0 0 0 0 0 0 0 0 0 0 0 0 0 0 0 0 0 0 0 0 0 0 0 0 0 0 0 0 0 0 0 0 0 0 0 0 0 0 0 0 0 0 0 0 0 0 0 0 0 0 0 0 0 0 0 0 0 0 0 0 0 0 0 0 0 0 0 0 0 0 0 0 0 0 0 0 0 0 0 0 0 0 0 0 0 0 0 0 0 0 0 0 0 0 0 0 0 0 0 0 0 0 0 0 0 0 0 0 0 0 0 0 0 0 0 0 0 0 0 0 0 0 0 0 0 0 0 0 0 0 0 0 0 0 0 0 0 0 0 0 0 0 0 0 0 0 0 0 0 0 0 0 0 0 0 0 0 0 0 0 0 0 0 0 0 0 0 0 0 0 0 0 0 0 0 0 0 0 0 0 0 0 0 0 0 0 0 0 0 0 0 0 0 0 0 0 0 0 0 0 0 0 0 0 0 0 0 0 0 0 0 0 0 0 0 0 0 0 0 0 0 0 0 0 0 0 0 0 0 0 0 0 0 0 0 0 0 0 0 0 0 0 0 0 0 0 0 0 0 0 0 0 0 0 0 0 0 0 0 0 0 0 0 0 0 0 0 0 0 0 0 0 0 0 0 0 0 0 0 0 0 0 0 0 0 0 0 0 0 0 0 0 0 0 0 0 0 0 0 0 0 0 0 0 0 0 0 0 0 0 0 0 0 0 0 0 0 0 0 0 0 0 0 0 0 0 0 0 0 0 0 0 0 0 0 0 0 0 0 0 0 0 0 0 0 0 0 0 0 0 0 0 0 0 0 0 0 0 0 0 0 0 0 0 0 0 0 0 0 0 0 0 0 0 0 0 0 0 0 0 0 0 0 0 0 0 0 0 0 0 0 0 0 0 0 0 0 0 0 0 0 0 0 0 0 0 0 0 0 0 0 0 0 0 0 0 0 0 0 0 0 0 0 0 0 0 0 0 0 0 0 0 0 0 0 0 0 0 0 0 0 0 0 0 0 0 0 0 0 0 0 0 0 0 0 0 0 0 0 0 0 0 0 0 0 0 0 0 0 0 0 0 0 0 0 0 0 0 0 0 0 0 0 0 0 0 0 0 0 0 0 0 0 0 0 0 0 0 0 0 0 0 0 0 0 0 0 0 0 0 0 0 0 0 0 0 0 0 0 0 0 0 0 0 0 0 0 0 0 0 0 0 0 0 0 0 0 0 0 0 0 0 0 0 0 0 0 0 0 0 0 0 0 0 0 0 0 0 0 0 0 0 0 0 0 0 0 0 0 0 0 0 0 0 0 0 0 0 0 0 0 0 0 0 0 0 0 0 0 0 0 0 0 0 0 0 0 0 0 0 0 0 0 0 0 0 0 0 0 0 0 0 0 0 0 0 0 0 0 0 0 0 0 0 0 0 0 0 0 0 0 0 0 0 0 0 0 0 0 0 0 0 0 0 0 0 0 0 0 0 0 0 0 0 0 0 0 0 0 0 0 0 0 0 0 0 0 0 0 0 0 0 0 0 0 0 0 0 0 0 0 0 0 0 0 0 0 0 0 0 0 0 0 0 0 0 0 0 0 0 0 0 0 0 0 0 0 0 0 0 0 0 0 0 0 0 0 0 0 0 0 0 0 0 0 0 0 0 0 0 0 0 0 0 0 0 0 0 0 0 0 0 0 0 0 0 0 0 0 0 0 0 0 0 0 0 0 0 0 0 0 0 0 0 0 0 0 0 0 0 0 0 0 0 0 0 0 0 0 0 0 0 0 0 0 0 0 0 0 0 0 0 0 0 0 0 0 0 0 0 0 0 0 0 0 0 0 0 0 0 0 0 0 0 0 0 0 0 0 0 0 0 0 0 0 0 0 0 0 0 0 0 0 0 0 0 0 0 0 0 0 0 0 0 0 0 0 0 0 0 0 0 0 0 0 0 0 0 0 0 0 0 0 0 0 0 0 0 0 0 0 0 0 0 0 0 0 0 0 0 0 0 0 0 0 0 0 0 0 0 0 0 0 0 0 0 0 0 0 0 0 0 0 0 0 0 0 0 0 0 0 0 0 0 0 0 0 0 0 0 0 0 0 0 0 0 0 0 0 0 0 0 0 0 0 0 0 0 0 0 0 0 0 0 0 0 0 0 0 0 0 0 0 0 0 0 0 0 0 0 0 0 0 0 0 0 0 0 0 0 0 0 0 0 0 0 0 0 0 0 0 0 0 0 0 0 0 0 0 0 0 0 0 0 0 0 0 0 0 0 0 0 0 0 0 0 0 0 0 0 0 0 0 0 0 0 0 0 0 0 0 0 0 0 0 0 0 0 0 0 0 0 0 0 0 0 0 0 0 0 0 0 0 0 0 0 0 0 0 0 0 0 0 0 0 0 0 0 0 0 0 0 0 0 0 0 0 0 0 0 0 0 0 0 0 0 0 0 0 0 0 0 0 0 0 0 0 0 0 0 0 0 0 0 0 0 0 0 0 0 0 0 0 0 0 0 0 0 0 0 0 0 0 0 0 0 0 0 0 0 0 0 0 0 0 0 0 0 0 0 0 0 0 0 0 0 0 0 0 0 0 0 0 0 0 0 0 0 0 0 0 0 0 0 0 0 0 0 0 0 0 0 0 0 0 0 0 0 0 0 0 0 0 0 0 0 0 0 0 0 0 0 0 0 0 0 0 0 0 0 0 0 0 0 0 0 0 0 0 0 0 0 0 0 0 0 0 0 0 0 0 0 0 0 0 0 0 0 0 0 0 0 0 0 0 0 0 0 0 0 0 0 0 0 0 0 0 0 0 0 0 0 0 0 0 0 0 0 0 0 0 0 0 0 0 0 0 0 0 0 0 0 0 0 0 0 0 0 0 0 0 0 0 0 0 0 0 0 0 0 0 0 0 0 0 0 0 0 0 0 0 0 0 0 0 0 0 0 0 0 0 0 0 0 0 0 0 0 0 0 0 0 0 0 0 0 0 0 0 0 0 0 0 0 0 0 0 0 0 0 0 0 0 0 0 0 0 0 0 0 0 0 0 0 0 0 0 0 0 0 0 0 0 0 0 0 0 0 0 0 0 0 0 0 0 0 0 0 0 0 0 0 0 0 0 0 0 0 0 0 0 0 0 0 0 0 0 0 0 0 0 0 0 0 0 0 0 0 0 0 0 0 0 0 0 0 0 0 0 0 0 0 0 0 0 0 0 0 0 0 0 0 0 0 0 0 0 0 0 0 0 0 0 0 0 0 0 0 0 0 0 0 0 0 0 0 0 0 0 0 0 0 0 0 0 0 0 0 0 0 0 0 0 0 0 0 0 0 0 0 0 0 0 0 0 0 0 0 0 0 0 0 0 0 0 0 0 0 0 0 0 0 0 0 0 0 0 0 0 0 0 0 0 0 0 0 0 0 0 0 0 0 0 0 0 0 0 0 0 0 0 0 0 0 0 0 0 0 0 0 0 0 0 0 0 0 0 0 0 0 0 0 0 0 0 0 0 0 0 0 0 0 0 0 0 0 0 0 0 0 0 0 0 0 0 0 0 0 0 0 0 0 0 0 0 0 0 0 0 0 0 0 0 0 0 0 0 0 0 0 0 0 0 0 0 0 0 0 0 0 0 0 0 0 0 0 0 0 0 0 0 0 0 0 0 0 0 0 0 0 0 0 0 0 0 0 0 0 0 0 0 0 0 0 0 0 0 0 0 0 0 0 0 0 0 0 0 0 0 0 0 0 0 0 0 0 0 0 0 0 0 0 0 0 0 0 0 0 0 0 0 0 0 0 0 0 0 0 0 0 0 0 0 0 0 0 0 0 0 0 0 0 0 0 0 0 0 0 0 0 0 0 0 0 0 0 0 0 0 0 0 0 0 0 0 0 0 0 0 0 0 0 0 0 0 0 0 0 0 0 0 0 0 0 0 0 0 0 0 0 0 0 0 0 0 0 0 0 0 0 0 0 0 0 0 0 0 0 0 0 0 0 0 0 0 0 0 0 0 0 0 0 0 0 0 0 0 0 0 0 0 0 0 0 0 0 0 0 0 0 0 0 0 0 0 0 0 0 0 0 0 0 0 0 0 0 0 0 0 0 0 0 0 0 0 0 0 0 0 0 0 0 0 0 0 0 0 0 0 0 0 0 0 0 0 0 0 0 0 0 0 0 0 0 0 0 0 0 0 0 0 0 0 0 0 0 0 0 0 0 0 0 0 0 0 0 0 0 0 0 0 0 0 0 0 0 0 0 0 0 0 0 0 0 0 0 0 0 0 0 0 0 0 0 0 0 0 0 0 0 0 0 0 0 0 0 0 0 0 0 0 0 0 0 0 0 0 0 0 0 0 0 0 0 0 0 0 0 0 0 0 0 0 0 0 0 0 0 0 0 0 0 0 0 0 0 0 0 0 0 0 0 0 0 0 0 0 0 0 0 0 0 0 0 0 0 0 0 0 0 0 0 0 0 0 0 0 0 0 0 0 0 0 0 0 0 0 0 0 0 0 0 0 0 0 0 0 0 0 0 0 0 0 0 0 0 0 0 0 0 0 0 0 0 0 0 0 0 0 0 0 0 0 0 0 0 0 0 0 0 0 0 0 0 0 0 0 0 0 0 0 0 0 0 0 0 0 0 0 0 0 0 0 0 0 0 0 0 0 0 0 0 0 0 0 0 0 0 0 0 0 0 0 0 0 0 0 0 0 0 0 0 0 0 0 0 0 0 0 0 0 0 0 0 0 0 0 0 0 0 0 0 0 0 0 0 0 0 0 0 0 0 0 0 0 0 0 0 0 0 0 0 0 0 0 0 0 0 0 0 0 0 0 0 0 0 0 0 0 0 0 0 0 0 0 0 0 0 0 0 0 0 0 0 0 0 0 0 0 0 0 0 0 0 0 0 0 0 0 0 0 0 0 0 0 0 0 0 0 0 0 0 0 0 0 0 0 0 0 0 0 0 0 0 0 0 0 0 0 0 0 0 0 0 0 0 0 0 0 0 0 0 0 0 0 0 0 0 0 0 0 0 0 0 0 0 0 0 0 0 0 0 0 0 0 0 0 0 0 0 0 0 0 0 0 0 0 0 0 0 0 0 0 0 0 0 0 0 0 0 0 0 0 0 0 0 0 0 0 0 0 0 0 0 0 0 0 0 0 0 0 0 0 0 0 0 0 0 0 0 0 0 0 0 0 0 0 0 0 0 0 0 0 0 0 0 0 0 0 0 0 0 0 0 0 0 0 0 0 0 0 0 0 0 0 0 0 0 0 0 0 0 0 0 0 0 0 0 0 0 0 0 0 0 0 0 0 0 0 0 0 0 0 0 0 0 0 0 0 0 0 0 0 0 0 0 0 0 0 0 0 0 0 0 0 0 0 0 0 0 0 0 0 0 0 0 0 0 0 0 0 0 0 0 0 0 0 0 0 0 0 0 0 0 0 0 0 0 0 0 0 0 0 0 0 0 0 0 0 0 0 0 0 0 0 0 0 0 0 0 0 0 0 0 0 0 0 0 0 0 0 0 0 0 0 0 0 0 0 0 0 0 0 0 0 0 0 0 0 0 0 0 0 0 0 0 0 0 0 0 0 0 0 0 0 0 0 0 0 0 0 0 0 0 0 0 0 0 0 0 0 0 0 0 0 0 0 0 0 0 0 0 0 0 0 0 0 0 0 0 0 0 0 0 0 0 0 0 0 0 0 0 0 0 0 0 0 0 0 0 0 0 0 0 0 0 0 0 0 0 0 0 0 0 0 0 0 0 0 0 0 0 0 0 0 0 0 0 0 0 0 0 0 0 0 0 0 0 0 0 0 0 0 0 0 0 0 0 0 0 0 0 0 0 0 0 0 0 0 0 0 0 0 0 0 0 0 0 0 0 0 0 0 0 0 0 0 0 0 0 0 0 0 0 0 0 0 0 0 0 0 0 0 0 0 0 0 0 0 0 0 0 0 0 0 0 0 0 0 0 0 0 0 0 0 0 0 0 0 0 0 0 0 0 0 0 0 0 0 0 0 0 0 0 0 0 0 0 0 0 0 0 0 0 0 0 0 0 0 0 0 0 0 0 0 0 0 0 0 0 0 0 0 0 0 0 0 0 0 0 0 0 0 0 0 0 0 0 0 0 0 0 0 0 0 0 0 0 0 0 0 0 0 0 0 0 0 0 0 0 0 0 0 0 0 0 0 0 0 0 0 0 0 0 0 0 0 0 0 0 0 0 0 0 0 0 0 0 0 0 0 0 0 0 0 0 0 0 0 0 0 0 0 0 0 0 0 0 0 0 0 0 0 0 0 0 0 0 0 0 0 0 0 0 0 0 0 0 0 0 0 0 0 0 0 0 0 0 0 0 0 0 0 0 0 0 0 0 0 0 0 0 0 0 0 0 0 0 0 0 0 0 0 0 0 0 0 0 0 0 0 0 0 0 0 0 0 0 0 0 0 0 0 0 0 0 0 0 0 0 0 0 0 0 0 0 0 0 0 0 0 0 0 0 0 0 0 0 0 0 0 0 0 0 0 0 0 0 0 0 0 0 0 0 0 0 0 0 0 0 0 0 0 0 0 0 0 0 0 0 0 0 0 0 0 0 0 0 0 0 0 0 0 0 0 0 0 0 0 0 0 0 0 0 0 0 0 0 0 0 0 0 0 0 0 0 0 0 0 0 0 0 0 0 0 0 0 0 0 0 0 0 0 0 0 0 0 0 0 0 0 0 0 0 0 0 0 0 0 0 0 0 0 0 0 0 0 0 0 0 0 0 0 0 0 0 0 0 0 0 0 0 0 0 0 0 0 0 0 0 0 0 0 0 0 0 0 0 0 0 0 0 0 0 0 0 0 0 0 0 0 0 0 0 0 0 0 0 0 0 0 0 0 0 0 0 0 0 0 0 0 0 0 0 0 0 0 0 0 0 0 0 0 0 0 0 0 0 0 0 0 0 0 0 0 0 0 0 0 0 0 0 0 0 0 0 0 0 0 0 0 0 0 0 0 0 0 0 0 0 0 0 0 0 0 0 0 0 0 0 0 0 0 0 0 0 0 0 0 0 0 0 0 0 0 0 0 0 0 0 0 0 0 0 0 0 0 0 0 0 0 0 0 0 0 0 0 0 0 0 0 0 0 0 0 0 0 0 0 0 0 0 0 0 0 0 0 0 0 0 0 0 0 0 0 0 0 0 0 0 0 0 0 0 0 0 0 0 0 0 0 0 0 0 0 0 0 0 0 0 0 0 0 0 0 0 0 0 0 0 0 0 0 0 0 0 0 0 0 0 0 0 0 0 0 0 0 0 0 0 0 0 0 0 0 0 0 0 0 0 0 0 0 0 0 0 0 0 0 0 0 0 0 0 0 0 0 0 0 0 0 0 0 0 0 0 0 0 0 0 0 0 0 0 0 0 0 0 0 0 0 0 0 0 0 0 0 0 0 0 0 0 0 0 0 0 0 0 0 0 0 0 0 0 0 0 0 0 0 0 0 0 0 0 0 0 0 0 0 0 0 0 0 0 0 0 0 0 0 0 0 0 0 0 0 0 0 0 0 0 0 0 0 0 0 0 0 0 0 0 0 0 0 0 0 0 0 0 0 0 0 0 0 0 0 0 0 0 0 0 0 0 0 0 0 0 0 0 0 0 0 0 0 0 0 0 0 0 0 0 0 0 0 0 0 0 0 0 0 0 0 0 0 0 0 0 0 0 0 0 0 0 0 0 0 0 0 0 0 0 0 0 0 0 0 0 0 0 0 0 0 0 0 0 0 0 0 0 0 0 0 0 0 0 0 0 0 0 0 0 0 0 0 0 0 0 0 0 0 0 0 0 0 0 0 0 0 0 0 0 0 0 0 0 0 0 0 0 0 0 0 0 0 0 0 0 0 0 0 0 0 0 0 0 0 0 0 0 0 0 0 0 0 0 0 0 0 0 0 0 0 0 0 0 0 0 0 0 0 0 0 0 0 0 0 0 0 0 0 0 0 0 0 0 0 0 0 0 0 0 0 0 0 0 0 0 0 0 0 0 0 0 0 0 0 0 0 0 0 0 0 0 0 0 0 0 0 0 0 0 0 0 0 0 0 0 0 0 0 0 0 0 0 0 0 0 0 0 0 0 0 0 0 0 0 0 0 0 0 0 0 0 0 0 0 0 0 0 0 0 0 0 0 0 0 0 0 0 0 0 0 0 0 0 0 0 0 0 0 0 0 0 0 0 0 0 0 0 0 0 0 0 0 0 0 0 0 0 0 0 0 0 0 0 0 0 0 0 0 0 0 0 0 0 0 0 0 0 0 0 0 0 0 0 0 0 0 0 0 0 0 0 0 0 0 0 0 0 0 0 0 0 0 0 0 0 0 0 0 0 0 0 0 0 0 0 0 0 0 0 0 0 0 0 0 0 0 0 0 0 0 0 0 0 0 0 0 0 0 0 0 0 0 0 0 0 0 0 0 0 0 0 0 0 0 0 0 0 0 0 0 0 0 0 0 0 0 0 0 0 0 0 0 0 0 0 0 0 0 0 0 0 0 0 0 0 0 0 0 0 0 0 0 0 0 0 0 0 0 0 0 0 0 0 0 0 0 0 0 0 0 0 0 0 0 0 0 0 0 0 0 0 0 0 0 0 0 0 0 0 0 0 0 0 0 0 0 0 0 0 0 0 0 0 0 0 0 0 0 0 0 0 0 0 0 0 0 0 0 0 0 0 0 0 0 0 0 0 0 0 0 0 0 0 0 0 0 0 0 0 0 0 0 0 0 0 0 0 0 0 0 0 0 0 0 0 0 0 0 0 0 0 0 0 0 0 0 0 0 0 0 0 0 0 0 0 0 0 0 0 0 0 0 0 0 0 0 0 0 0 0 0 0 0 0 0 0 0 0 0 0 0 0 0 0 0 0 0 0 0 0 0 0 0 0 0 0 0 0 0 0 0 0 0 0 0 0 0 0 0 0 0 0 0 0 0 0 0 0 0 0 0 0 0 0 0 0 0 0 0 0 0 0 0 0 0 0 0 0 0 0 0 0 0 0 0 0 0 0 0 0 0 0 0 0 0 0 0 0 0 0 0 0 0 0 0 0 0 0 0 0 0 0 0 0 0 0 0 0 0 0 0 0 0 0 0 0 0 0 0 0 0 0 0 0 0 0 0 0 0 0 0 0 0 0 0 0 0 0 0 0 0 0 0 0 0 0 0 0 0 0 0 0 0 0 0 0 0 0 0 0 0 0 0 0 0 0 0 0 0 0 0 0 0 0 0 0 0 0 0 0 0 0 0 0 0 0 0 0 0 0 0 0 0 0 0 0 0 0 0 0 0 0 0 0 0 0 0 0 0 0 0 0 0 0 0 0 0 0 0 0 0 0 0 0 0 0 0 0 0 0 0 0 0 0 0 0 0 0 0 0 0 0 0 0 0 0 0 0 0 0 0 0 0 0 0 0 0 0 0 0 0 0 0 0 0 0 0 0 0 0 0 0 0 0 0 0 0 0 0 0 0 0 0 0 0 0 0 0 0 0 0 0 0 0 0 0 0 0 0 0 0 0 0 0 0 0 0 0 0 0 0 0 0 0 0 0 0 0 0 0 0 0 0 0 0 0 0 0 0 0 0 0 0 0 0 0 0 0 0 0 0 0 0 0 0 0 0 0 0 0 0 0 0 0 0 0 0 0 0 0 0 0 0 0 0 0 0 0 0 0 0 0 0 0 0 0 0 0 0 0 0 0 0 0 0 0 0 0 0 0 0 0 0 0 0 0 0 0 0 0 0 0 0 0 0 0 0 0 0 0 0 0 0 0 0 0 0 0 0 0 0 0 0 0 0 0 0 0 0 0 0 0 0 0 0 0 0 0 0 0 0 0 0 0 0 0 0 0 0 0 0 0 0 0 0 0 0 0 0 0 0 0 0 0 0 0 0 0 0 0 0 0 0 0 0 0 0 0 0 0 0 0 0 0 0 0 0 0 0 0 0 0 0 0 0
CELL_DATA 21934
FIELD FieldData 1
mat_id 1 21934 vtktypeint64